/*--------------------------------*- C++ -*----------------------------------*\
| =========                 |                                                 |
| \\      /  F ield         | OpenFOAM: The Open Source CFD Toolbox           |
|  \\    /   O peration     | Version:  v2012                                 |
|   \\  /    A nd           | Website:  www.openfoam.com                      |
|    \\/     M anipulation  |                                                 |
\*---------------------------------------------------------------------------*/
FoamFile
{
    version     2.0;
    format      ascii;
    class       volScalarField;
    location    "0.001";
    object      p;
}
// * * * * * * * * * * * * * * * * * * * * * * * * * * * * * * * * * * * * * //

dimensions      [0 2 -2 0 0 0 0];


internalField   nonuniform List<scalar> 
179200
(
-0.000858827
-0.00139959
-0.000793757
-0.00175326
-0.000682137
-0.00244313
-0.000571193
-0.00277581
-0.000487505
-0.00310977
-0.000861014
-0.00139905
-0.000795896
-0.00175235
-0.000684268
-0.00244212
-0.000573316
-0.00277476
-0.000489624
-0.00310871
-0.000862792
-0.00139807
-0.000797654
-0.00175061
-0.000686058
-0.0024402
-0.000575116
-0.00277275
-0.000491429
-0.00310668
-0.000864398
-0.00139664
-0.000799231
-0.00174806
-0.000687684
-0.00243738
-0.000576759
-0.0027698
-0.00049308
-0.00310368
-0.000865837
-0.00139474
-0.000800633
-0.00174468
-0.000689152
-0.00243364
-0.00057825
-0.00276589
-0.000494586
-0.00309968
-0.000867111
-0.00139238
-0.000801863
-0.00174047
-0.000690468
-0.00242896
-0.000579599
-0.00276099
-0.000495956
-0.00309466
-0.000868224
-0.00138954
-0.000802928
-0.00173544
-0.000691639
-0.00242335
-0.000580815
-0.0027551
-0.000497201
-0.0030886
-0.000869179
-0.00138624
-0.000803832
-0.00172957
-0.000692674
-0.00241677
-0.00058191
-0.00274817
-0.000498336
-0.00308146
-0.000869979
-0.00138246
-0.000804583
-0.00172288
-0.000693582
-0.00240921
-0.000582897
-0.0027402
-0.000499375
-0.00307321
-0.00087063
-0.00137822
-0.000805188
-0.00171538
-0.000694373
-0.00240066
-0.000583791
-0.00273116
-0.000500337
-0.00306382
-0.000871136
-0.00137351
-0.000805654
-0.00170707
-0.000695061
-0.0023911
-0.000584608
-0.00272101
-0.000501242
-0.00305325
-0.000871502
-0.00136835
-0.000805992
-0.00169798
-0.000695657
-0.0023805
-0.000585368
-0.00270973
-0.000502112
-0.00304144
-0.000871732
-0.00136274
-0.000806208
-0.00168811
-0.000696175
-0.00236885
-0.00058609
-0.00269727
-0.000502972
-0.00302833
-0.000871832
-0.00135668
-0.000806315
-0.00167749
-0.000696631
-0.00235613
-0.000586797
-0.00268359
-0.000503851
-0.00301386
-0.000871807
-0.0013502
-0.00080632
-0.00166614
-0.00069704
-0.00234229
-0.000587513
-0.00266864
-0.000504778
-0.00299795
-0.000871663
-0.00134329
-0.000806235
-0.0016541
-0.000697419
-0.00232733
-0.000588265
-0.00265237
-0.000505787
-0.00298052
-0.000871407
-0.00133597
-0.000806071
-0.0016414
-0.000697787
-0.0023112
-0.00058908
-0.00263472
-0.000506913
-0.00296146
-0.000871044
-0.00132824
-0.000805839
-0.00162807
-0.000698161
-0.00229388
-0.000589987
-0.00261561
-0.000508195
-0.00294067
-0.000870579
-0.00132013
-0.000805549
-0.00161417
-0.000698559
-0.00227533
-0.000591018
-0.00259498
-0.000509674
-0.00291803
-0.00087002
-0.00131165
-0.000805213
-0.00159973
-0.000699002
-0.00225553
-0.000592205
-0.00257274
-0.000511392
-0.00289339
-0.000869372
-0.0013028
-0.000804843
-0.00158481
-0.000699509
-0.00223445
-0.000593581
-0.00254882
-0.000513396
-0.00286662
-0.000868642
-0.00129361
-0.000804448
-0.00156947
-0.000700098
-0.00221206
-0.00059518
-0.00252312
-0.000515731
-0.00283755
-0.000867836
-0.00128408
-0.000804039
-0.00155377
-0.000700788
-0.00218834
-0.000597034
-0.00249557
-0.000518445
-0.00280601
-0.000866959
-0.00127424
-0.000803627
-0.00153777
-0.000701596
-0.00216328
-0.000599176
-0.00246609
-0.000521583
-0.00277186
-0.000866018
-0.0012641
-0.00080322
-0.00152155
-0.000702539
-0.00213688
-0.000601637
-0.00243459
-0.000525193
-0.00273491
-0.000865017
-0.00125367
-0.000802827
-0.00150517
-0.00070363
-0.00210915
-0.000604445
-0.00240102
-0.000529315
-0.00269503
-0.000863964
-0.00124298
-0.000802454
-0.0014887
-0.000704883
-0.00208011
-0.000607625
-0.00236533
-0.000533988
-0.00265207
-0.000862863
-0.00123204
-0.000802107
-0.00147221
-0.000706307
-0.00204982
-0.000611195
-0.0023275
-0.000539244
-0.00260594
-0.000861719
-0.00122088
-0.00080179
-0.00145577
-0.000707907
-0.00201832
-0.000615168
-0.00228754
-0.000545106
-0.00255659
-0.000860537
-0.0012095
-0.000801505
-0.00143943
-0.000709686
-0.00198571
-0.000619552
-0.00224552
-0.000551587
-0.00250404
-0.000859324
-0.00119794
-0.000801251
-0.00142326
-0.000711643
-0.00195207
-0.000624342
-0.00220152
-0.000558685
-0.00244837
-0.000858083
-0.00118621
-0.000801025
-0.00140731
-0.000713772
-0.00191754
-0.000629527
-0.0021557
-0.000566386
-0.00238978
-0.000856819
-0.00117434
-0.000800825
-0.0013916
-0.000716061
-0.00188224
-0.000635083
-0.00210828
-0.000574657
-0.00232857
-0.000855535
-0.00116235
-0.000800644
-0.00137617
-0.000718497
-0.00184631
-0.000640977
-0.00205951
-0.000583448
-0.00226515
-0.000854236
-0.00115027
-0.000800475
-0.00136103
-0.000721059
-0.0018099
-0.000647166
-0.00200973
-0.000592692
-0.00220003
-0.000852923
-0.00113813
-0.00080031
-0.00134617
-0.000723725
-0.00177313
-0.000653595
-0.00195927
-0.000602303
-0.00213378
-0.000851598
-0.00112594
-0.000800139
-0.00133159
-0.000726469
-0.00173614
-0.000660204
-0.00190852
-0.000612182
-0.00206704
-0.000850262
-0.00111373
-0.000799953
-0.00131724
-0.00072926
-0.00169903
-0.000666924
-0.00185785
-0.000622221
-0.00200044
-0.000848916
-0.00110152
-0.000799741
-0.0013031
-0.00073207
-0.00166191
-0.000673685
-0.0018076
-0.000632302
-0.00193455
-0.000847558
-0.00108934
-0.000799493
-0.0012891
-0.000734866
-0.00162484
-0.000680412
-0.0017581
-0.00064231
-0.00186987
-0.000625845
-0.00169725
-0.000752548
-0.00132583
-0.000774987
-0.00143732
-0.000777671
-0.00142796
-0.000776201
-0.00142792
-0.000628032
-0.00169649
-0.000754741
-0.00132524
-0.0007772
-0.00143679
-0.00077989
-0.00142742
-0.000778418
-0.00142738
-0.000629918
-0.00169506
-0.000756566
-0.00132414
-0.000779034
-0.0014358
-0.000781726
-0.00142643
-0.000780254
-0.00142639
-0.000631689
-0.00169297
-0.000758242
-0.00132255
-0.000780726
-0.00143435
-0.00078342
-0.00142497
-0.000781949
-0.00142493
-0.000633349
-0.00169021
-0.000759776
-0.00132045
-0.000782279
-0.00143243
-0.000784975
-0.00142304
-0.000783505
-0.001423
-0.000634903
-0.00168676
-0.00076117
-0.00131785
-0.000783695
-0.00143004
-0.000786396
-0.00142063
-0.000784926
-0.00142059
-0.000636357
-0.00168261
-0.000762431
-0.00131474
-0.00078498
-0.00142718
-0.000787684
-0.00141773
-0.000786215
-0.00141769
-0.000637718
-0.00167776
-0.000763563
-0.00131113
-0.000786138
-0.00142383
-0.000788845
-0.00141436
-0.000787375
-0.00141432
-0.000638992
-0.0016722
-0.000764572
-0.00130704
-0.000787171
-0.00142002
-0.000789881
-0.0014105
-0.000788412
-0.00141046
-0.000640189
-0.00166591
-0.000765466
-0.00130247
-0.000788086
-0.00141573
-0.000790798
-0.00140617
-0.000789328
-0.00140612
-0.000641317
-0.0016589
-0.00076625
-0.00129743
-0.000788888
-0.00141097
-0.000791599
-0.00140135
-0.000790129
-0.0014013
-0.000642386
-0.00165117
-0.000766934
-0.00129195
-0.000789581
-0.00140575
-0.000792291
-0.00139606
-0.000790818
-0.001396
-0.000643407
-0.00164271
-0.000767525
-0.00128605
-0.000790172
-0.00140007
-0.000792877
-0.00139031
-0.000791402
-0.00139024
-0.000644392
-0.00163351
-0.000768032
-0.00127974
-0.000790667
-0.00139395
-0.000793363
-0.0013841
-0.000791886
-0.00138402
-0.000645353
-0.0016236
-0.000768463
-0.00127305
-0.000791071
-0.00138738
-0.000793754
-0.00137743
-0.000792273
-0.00137734
-0.000646302
-0.00161296
-0.000768828
-0.001266
-0.000791391
-0.00138038
-0.000794056
-0.00137032
-0.00079257
-0.00137022
-0.000647253
-0.00160161
-0.000769137
-0.00125863
-0.000791633
-0.00137295
-0.000794275
-0.00136277
-0.000792783
-0.00136266
-0.00064822
-0.00158955
-0.000769399
-0.00125096
-0.000791803
-0.00136511
-0.000794415
-0.0013548
-0.000792916
-0.00135467
-0.000649217
-0.0015768
-0.000769624
-0.00124302
-0.000791908
-0.00135686
-0.000794483
-0.00134642
-0.000792975
-0.00134627
-0.000650259
-0.00156336
-0.000769823
-0.00123485
-0.000791954
-0.00134821
-0.000794484
-0.00133763
-0.000792965
-0.00133746
-0.000651359
-0.00154925
-0.000770004
-0.00122648
-0.000791947
-0.00133916
-0.000794423
-0.00132845
-0.000792892
-0.00132826
-0.000652532
-0.00153448
-0.000770177
-0.00121795
-0.000791893
-0.00132973
-0.000794306
-0.00131889
-0.00079276
-0.00131868
-0.000653792
-0.00151909
-0.000770352
-0.00120928
-0.000791798
-0.00131992
-0.000794137
-0.00130897
-0.000792574
-0.00130873
-0.000655151
-0.00150311
-0.000770538
-0.0012005
-0.000791667
-0.00130973
-0.000793922
-0.00129869
-0.00079234
-0.00129843
-0.000656621
-0.00148656
-0.000770742
-0.00119166
-0.000791506
-0.00129918
-0.000793664
-0.00128807
-0.00079206
-0.00128779
-0.000658212
-0.0014695
-0.000770972
-0.00118278
-0.000791318
-0.00128827
-0.000793368
-0.00127713
-0.00079174
-0.00127683
-0.000659934
-0.00145197
-0.000771236
-0.00117388
-0.000791108
-0.00127701
-0.000793037
-0.00126588
-0.000791383
-0.00126557
-0.000661791
-0.00143405
-0.000771538
-0.00116499
-0.00079088
-0.00126541
-0.000792675
-0.00125435
-0.000790992
-0.00125401
-0.000663789
-0.00141579
-0.000771883
-0.00115614
-0.000790637
-0.00125348
-0.000792284
-0.00124254
-0.000790569
-0.00124219
-0.000665927
-0.00139729
-0.000772276
-0.00114734
-0.00079038
-0.00124122
-0.000791868
-0.00123048
-0.000790118
-0.00123013
-0.000668203
-0.00137861
-0.000772716
-0.00113862
-0.000790112
-0.00122867
-0.000791427
-0.0012182
-0.000789639
-0.00121784
-0.000670611
-0.00135985
-0.000773206
-0.00112998
-0.000789833
-0.00121584
-0.000790963
-0.00120571
-0.000789136
-0.00120534
-0.00067314
-0.00134108
-0.000773743
-0.00112143
-0.000789545
-0.00120276
-0.000790477
-0.00119304
-0.000788607
-0.00119268
-0.000675779
-0.00132241
-0.000774325
-0.001113
-0.000789246
-0.00118946
-0.000789969
-0.00118022
-0.000788054
-0.00117986
-0.000678508
-0.00130388
-0.000774947
-0.00110469
-0.000788935
-0.00117598
-0.00078944
-0.00116727
-0.000787477
-0.00116692
-0.000681309
-0.00128558
-0.000775601
-0.0010965
-0.000788611
-0.00116235
-0.000788887
-0.00115423
-0.000786875
-0.00115389
-0.000684159
-0.00126753
-0.000776279
-0.00108844
-0.000788271
-0.00114864
-0.000788311
-0.00114113
-0.000786247
-0.00114079
-0.000687031
-0.00124976
-0.000776971
-0.00108051
-0.000787913
-0.00113488
-0.000787709
-0.00112799
-0.000785592
-0.00112766
-0.000689902
-0.00123227
-0.000777666
-0.00107271
-0.000787532
-0.00112114
-0.00078708
-0.00111485
-0.000784909
-0.00111452
-0.000692744
-0.00121505
-0.000778351
-0.00106504
-0.000787124
-0.00110746
-0.000786421
-0.00110174
-0.000784195
-0.00110139
-0.000428172
-0.00344161
-0.000375235
-0.00366107
-0.000318851
-0.00382771
-0.000258973
-0.00397226
-0.000196078
-0.00411528
-0.000131981
-0.00426858
-7.01896e-05
-0.00443332
-1.56824e-05
-0.00459863
2.59909e-05
-0.00474284
5.00593e-05
-0.00483985
5.38185e-05
-0.00487062
3.74369e-05
-0.00483682
3.85123e-06
-0.00475663
-4.19374e-05
-0.0046567
-9.42019e-05
-0.00455812
-0.000147861
-0.00446974
-0.0001994
-0.0043865
-0.000247075
-0.004291
-0.000290525
-0.00415584
-0.000329584
-0.00394659
-0.000430287
-0.00344056
-0.000377347
-0.00366004
-0.000320958
-0.00382671
-0.000261073
-0.00397131
-0.000198169
-0.00411441
-0.000134064
-0.00426779
-7.22644e-05
-0.0044326
-1.77511e-05
-0.00459797
2.39261e-05
-0.00474222
4.79955e-05
-0.00483924
5.1753e-05
-0.00487
3.53666e-05
-0.00483617
1.77343e-06
-0.00475594
-4.40251e-05
-0.00465593
-9.63013e-05
-0.00455728
-0.000149973
-0.00446881
-0.000201525
-0.00438549
-0.000249211
-0.00428992
-0.00029267
-0.00415475
-0.000331736
-0.0039455
-0.000432093
-0.00343857
-0.000379151
-0.00365808
-0.000322757
-0.00382481
-0.000262863
-0.00396953
-0.000199946
-0.00411276
-0.000135828
-0.00426629
-7.40165e-05
-0.00443123
-1.94937e-05
-0.00459669
2.2189e-05
-0.004741
4.62597e-05
-0.00483805
5.00137e-05
-0.00486879
3.36189e-05
-0.00483492
1.28791e-08
-0.0047546
-4.58026e-05
-0.00465447
-9.80986e-05
-0.00455566
-0.000151792
-0.00446703
-0.000203364
-0.00438356
-0.000251067
-0.00428788
-0.000294538
-0.00415266
-0.00033361
-0.00394342
-0.000433748
-0.00343554
-0.000380806
-0.00365508
-0.000324407
-0.00382189
-0.000264501
-0.00396676
-0.000201569
-0.00411019
-0.000137434
-0.00426392
-7.56067e-05
-0.00442904
-2.10722e-05
-0.00459465
2.06172e-05
-0.00473905
4.46887e-05
-0.00483613
4.84374e-05
-0.00486685
3.20311e-05
-0.0048329
-1.59241e-06
-0.00475245
-4.74307e-05
-0.00465213
-9.97536e-05
-0.00455311
-0.000153475
-0.00446425
-0.000205075
-0.00438056
-0.000252801
-0.00428473
-0.000296288
-0.00414945
-0.000335372
-0.00394023
-0.000435261
-0.00343146
-0.000382321
-0.00365102
-0.000325917
-0.00381794
-0.000265997
-0.00396301
-0.000203045
-0.00410669
-0.00013889
-0.00426069
-7.70445e-05
-0.00442605
-2.24959e-05
-0.00459184
1.92012e-05
-0.00473637
4.32732e-05
-0.00483349
4.70148e-05
-0.00486418
3.05937e-05
-0.00483012
-3.05211e-06
-0.00474949
-4.89193e-05
-0.00464893
-0.000101276
-0.00454962
-0.000155034
-0.00446045
-0.000206668
-0.00437648
-0.000254424
-0.00428044
-0.00029793
-0.00414508
-0.000337029
-0.00393589
-0.000436643
-0.00342632
-0.000383706
-0.00364589
-0.000327297
-0.00381294
-0.000267362
-0.00395826
-0.000204388
-0.00410226
-0.000140209
-0.00425658
-7.83417e-05
-0.00442225
-2.37768e-05
-0.00458828
1.79292e-05
-0.00473295
4.20012e-05
-0.00483012
4.57339e-05
-0.00486077
2.92946e-05
-0.00482657
-4.37829e-06
-0.00474571
-5.02806e-05
-0.00464485
-0.000102679
-0.00454516
-0.00015648
-0.0044556
-0.000208157
-0.00437127
-0.000255947
-0.00427497
-0.000299477
-0.0041395
-0.000338592
-0.00393036
-0.000437905
-0.00342008
-0.000384975
-0.00363966
-0.000328562
-0.00380687
-0.00026861
-0.00395249
-0.000205612
-0.00409687
-0.000141405
-0.00425159
-7.95131e-05
-0.00441762
-2.49297e-05
-0.00458393
1.6786e-05
-0.00472878
4.08577e-05
-0.00482602
4.45797e-05
-0.00485661
2.81188e-05
-0.00482224
-5.5861e-06
-0.0047411
-5.15297e-05
-0.00463985
-0.000103976
-0.00453971
-0.000157829
-0.00444967
-0.000209554
-0.00436489
-0.000257385
-0.00426826
-0.00030094
-0.00413267
-0.000340074
-0.00392359
-0.000439063
-0.00341273
-0.000386143
-0.00363231
-0.000329729
-0.00379969
-0.000269759
-0.00394567
-0.000206734
-0.0040905
-0.000142497
-0.0042457
-8.05769e-05
-0.00441215
-2.59729e-05
-0.0045788
1.57533e-05
-0.00472385
3.98242e-05
-0.00482116
4.35334e-05
-0.00485168
2.70475e-05
-0.00481711
-6.69409e-06
-0.00473563
-5.26851e-05
-0.00463392
-0.000105187
-0.00453323
-0.000159099
-0.0044426
-0.000210879
-0.00435729
-0.000258754
-0.00426027
-0.000302338
-0.00412453
-0.00034149
-0.00391554
-0.000440134
-0.00340421
-0.000387229
-0.0036238
-0.000330816
-0.00379138
-0.000270829
-0.00393776
-0.000207775
-0.00408311
-0.000143505
-0.00423886
-8.15547e-05
-0.00440582
-2.69286e-05
-0.00457285
1.48088e-05
-0.00471814
3.88781e-05
-0.00481553
4.25726e-05
-0.00484597
2.60585e-05
-0.00481116
-7.72457e-06
-0.00472927
-5.37688e-05
-0.00462702
-0.000106332
-0.00452567
-0.00016031
-0.00443435
-0.000212152
-0.00434841
-0.000260076
-0.00425093
-0.000303689
-0.00411501
-0.000342859
-0.00390613
-0.000441137
-0.0033945
-0.000388253
-0.00361408
-0.000331845
-0.00378188
-0.000271842
-0.00392873
-0.000208759
-0.00407468
-0.000144454
-0.00423105
-8.24722e-05
-0.00439858
-2.78228e-05
-0.00456605
1.39258e-05
-0.00471162
3.79926e-05
-0.00480909
4.16705e-05
-0.00483943
2.51249e-05
-0.00480433
-8.70402e-06
-0.00472198
-5.4807e-05
-0.00461908
-0.000107439
-0.00451698
-0.000161488
-0.00442486
-0.000213397
-0.00433818
-0.000261373
-0.00424016
-0.000305015
-0.00410405
-0.0003442
-0.00389531
-0.000442094
-0.00338352
-0.00038924
-0.00360308
-0.000332843
-0.00377113
-0.000272827
-0.0039185
-0.000209714
-0.00406512
-0.000145374
-0.00422221
-8.33597e-05
-0.00439038
-2.86865e-05
-0.00455835
1.30731e-05
-0.00470422
3.71362e-05
-0.00480179
4.07953e-05
-0.00483202
2.42152e-05
-0.00479659
-9.66359e-06
-0.00471369
-5.58303e-05
-0.00461007
-0.000108536
-0.00450709
-0.000162662
-0.00441405
-0.000214641
-0.00432653
-0.000262671
-0.0042279
-0.000306341
-0.00409158
-0.000345539
-0.00388301
-0.000443031
-0.00337122
-0.000390218
-0.00359073
-0.000333839
-0.00375906
-0.000273813
-0.00390701
-0.000210673
-0.00405438
-0.000146299
-0.00421227
-8.42521e-05
-0.00438116
-2.95558e-05
-0.00454969
1.22138e-05
-0.0046959
3.62717e-05
-0.00479357
3.99098e-05
-0.00482366
2.32924e-05
-0.00478785
-1.06396e-05
-0.00470435
-5.68741e-05
-0.00459988
-0.000109658
-0.00449591
-0.000163865
-0.00440184
-0.000215918
-0.00431337
-0.000264002
-0.00421406
-0.000307696
-0.0040775
-0.0003469
-0.00386915
-0.000443977
-0.00335751
-0.000391216
-0.00357695
-0.000334865
-0.00374557
-0.000274836
-0.00389415
-0.000211674
-0.00404237
-0.000147267
-0.00420114
-8.51901e-05
-0.00437083
-3.04724e-05
-0.00453998
1.13051e-05
-0.00468656
3.53557e-05
-0.00478435
3.89707e-05
-0.00481427
2.23136e-05
-0.00477804
-1.16743e-05
-0.00469384
-5.79794e-05
-0.00458844
-0.000110844
-0.00448336
-0.000165135
-0.00438812
-0.000217262
-0.0042986
-0.000265399
-0.00419852
-0.000309112
-0.00406171
-0.000348315
-0.00385363
-0.000444961
-0.00334231
-0.000392269
-0.00356164
-0.000335959
-0.00373056
-0.000275937
-0.00387984
-0.000212757
-0.00402897
-0.000148324
-0.00418872
-8.62204e-05
-0.00435929
-3.14848e-05
-0.00452911
1.02974e-05
-0.0046761
3.43378e-05
-0.00477399
3.79275e-05
-0.00480374
2.12289e-05
-0.00476703
-1.28164e-05
-0.00468206
-5.91934e-05
-0.00457563
-0.00011214
-0.00446932
-0.000166515
-0.00437278
-0.000218715
-0.00428208
-0.000266901
-0.00418117
-0.000310625
-0.0040441
-0.000349817
-0.00383634
-0.00044602
-0.00332552
-0.000393415
-0.00354468
-0.000337162
-0.00371391
-0.000277159
-0.00386394
-0.000213973
-0.00401407
-0.00014952
-0.00417487
-8.73967e-05
-0.00434639
-3.2649e-05
-0.00451694
9.13317e-06
-0.00466437
3.31598e-05
-0.00476238
3.67217e-05
-0.00479192
1.99806e-05
-0.00475468
-1.4122e-05
-0.00466887
-6.05702e-05
-0.00456129
-0.000113598
-0.00445363
-0.000168054
-0.00435567
-0.000220324
-0.00426369
-0.000268551
-0.00416187
-0.000312275
-0.00402453
-0.000351443
-0.00381717
-0.000447191
-0.00330703
-0.000394697
-0.00352596
-0.00033852
-0.00369549
-0.000278553
-0.00384631
-0.000215374
-0.0039975
-0.000150914
-0.00415943
-8.87804e-05
-0.00433197
-3.40293e-05
-0.0045033
7.74599e-06
-0.00465118
3.1754e-05
-0.0047493
3.5286e-05
-0.00477861
1.85025e-05
-0.00474081
-1.56556e-05
-0.00465407
-6.21716e-05
-0.00454526
-0.000115275
-0.00443613
-0.000169807
-0.00433663
-0.000222138
-0.00424325
-0.000270397
-0.00414045
-0.000314108
-0.00400284
-0.000353233
-0.00379596
-0.000448515
-0.00328672
-0.00039616
-0.00350532
-0.000340085
-0.00367513
-0.000280175
-0.00382677
-0.000217021
-0.00397907
-0.00015257
-0.0041422
-9.04416e-05
-0.00431582
-3.56992e-05
-0.00448796
6.05962e-06
-0.00463632
3.00431e-05
-0.00473454
3.35427e-05
-0.0047636
1.6718e-05
-0.00472517
-1.7491e-05
-0.00463745
-6.4068e-05
-0.00452731
-0.000117239
-0.0044166
-0.000171836
-0.00431545
-0.000224217
-0.00422058
-0.000272493
-0.00411673
-0.000316171
-0.00397885
-0.000355234
-0.00377254
-0.000450037
-0.00326443
-0.000397855
-0.00348258
-0.000341912
-0.00365264
-0.000282086
-0.0038051
-0.000218983
-0.00395856
-0.000154564
-0.00412292
-9.24599e-05
-0.00429767
-3.77431e-05
-0.00447065
3.98663e-06
-0.00461948
2.79377e-05
-0.0047178
3.14027e-05
-0.00474657
1.45398e-05
-0.00470749
-1.97126e-05
-0.00461873
-6.63394e-05
-0.00450717
-0.000119565
-0.00439479
-0.000174212
-0.00429187
-0.000226624
-0.00419542
-0.000274896
-0.00409049
-0.000318519
-0.00395236
-0.000357492
-0.00374675
-0.000451806
-0.00324001
-0.000399835
-0.00345756
-0.000344062
-0.00362778
-0.000284356
-0.00378105
-0.000221336
-0.00393568
-0.000156978
-0.00410131
-9.49255e-05
-0.00427719
-4.02567e-05
-0.00445102
1.4272e-06
-0.00460033
2.53359e-05
-0.00469872
2.8764e-05
-0.00472718
1.1868e-05
-0.00468741
-2.24163e-05
-0.00459755
-6.90763e-05
-0.00448453
-0.000122336
-0.00437039
-0.00017701
-0.00426563
-0.00022943
-0.00416752
-0.000277672
-0.00406146
-0.000321209
-0.00392314
-0.000360063
-0.00371835
-0.000453871
-0.00321325
-0.000402161
-0.00343001
-0.000346603
-0.0036003
-0.000287059
-0.00375433
-0.000224164
-0.00391012
-0.000159906
-0.00407701
-9.79399e-05
-0.00425402
-4.33484e-05
-0.00442868
-1.73225e-06
-0.00457842
2.21216e-05
-0.00467686
2.55103e-05
-0.00470498
8.58887e-06
-0.0046645
-2.57108e-05
-0.00457351
-7.23809e-05
-0.00445898
-0.000125646
-0.00434303
-0.000180317
-0.00423637
-0.000232712
-0.00413656
-0.000280889
-0.00402937
-0.000324306
-0.00389091
-0.000363001
-0.00368713
-0.000456288
-0.00318396
-0.000404894
-0.00339969
-0.000349605
-0.00356992
-0.000290278
-0.00372463
-0.00022756
-0.0038815
-0.000163452
-0.0040496
-0.000101617
-0.00422768
-4.71407e-05
-0.00440312
-5.62032e-06
-0.00455325
1.81629e-05
-0.00465168
2.15099e-05
-0.00467944
4.57377e-06
-0.00463822
-2.97188e-05
-0.00454611
-7.63672e-05
-0.00443005
-0.000129601
-0.00431228
-0.000184227
-0.0042037
-0.000236554
-0.00410219
-0.000284623
-0.00399389
-0.000327874
-0.00385538
-0.000366367
-0.00365282
-0.000459113
-0.00315192
-0.0004081
-0.00336633
-0.000353145
-0.0035363
-0.000294101
-0.00369155
-0.000231625
-0.00384939
-0.000167729
-0.00401859
-0.000106083
-0.00419765
-5.1771e-05
-0.00437376
-1.03819e-05
-0.00452418
1.33108e-05
-0.00462255
1.66136e-05
-0.00464991
-3.22284e-07
-0.00460797
-3.45777e-05
-0.00451476
-8.11626e-05
-0.0043972
-0.000134315
-0.00427763
-0.000188843
-0.00416717
-0.000241046
-0.00406399
-0.000288953
-0.00395467
-0.000331986
-0.00381624
-0.000370224
-0.00361515
-0.000462403
-0.00311688
-0.000411848
-0.00332963
-0.000357304
-0.00349911
-0.000298622
-0.00365469
-0.000236469
-0.00381332
-0.000172864
-0.00398344
-0.00011148
-0.00416329
-5.7392e-05
-0.00433991
-1.61792e-05
-0.00449049
7.39829e-06
-0.0045887
1.06545e-05
-0.00461564
-6.26152e-06
-0.00457299
-4.04406e-05
-0.00447874
-8.69078e-05
-0.00435979
-0.000139914
-0.00423852
-0.000194275
-0.00412626
-0.000246286
-0.00402152
-0.000293963
-0.00391129
-0.000336715
-0.00377313
-0.000374635
-0.00357382
-0.000466217
-0.00307861
-0.000416206
-0.00328928
-0.000362165
-0.00345796
-0.000303941
-0.00361358
-0.000242209
-0.00377272
-0.000178993
-0.00394349
-0.00011796
-0.00412388
-6.41729e-05
-0.00430076
-2.31924e-05
-0.00445131
2.39385e-07
-0.00454923
3.44663e-06
-0.00457571
-1.3424e-05
-0.00453242
-4.74767e-05
-0.00443726
-9.3757e-05
-0.00431706
-0.000146537
-0.00419428
-0.000200644
-0.00408041
-0.000252376
-0.00397429
-0.000299741
-0.00386335
-0.000342135
-0.00372569
-0.000379668
-0.00352852
-0.000470613
-0.00303686
-0.000421246
-0.00324496
-0.000367813
-0.00341243
-0.000310162
-0.00356773
-0.000248971
-0.003727
-0.000186261
-0.00389803
-0.00012569
-0.00407857
-7.22985e-05
-0.00425539
-3.16193e-05
-0.00440564
-8.37085e-06
-0.00450312
-5.21494e-06
-0.0045291
-2.20077e-05
-0.00448525
-5.58707e-05
-0.00438936
-0.000101877
-0.00426819
-0.000154328
-0.00414417
-0.000208074
-0.00402898
-0.000259421
-0.00392176
-0.000306375
-0.00381039
-0.000348322
-0.00367355
-0.000385386
-0.00347894
-0.000475643
-0.00299139
-0.000427034
-0.00319634
-0.000374334
-0.00336212
-0.00031739
-0.00351659
-0.000256883
-0.00367548
-0.000194824
-0.00384624
-0.000134849
-0.00402644
-8.1968e-05
-0.00420273
-4.16748e-05
-0.00435233
-1.86553e-05
-0.00444915
-1.55531e-05
-0.0044746
-3.22272e-05
-0.00443034
-6.58216e-05
-0.004334
-0.000111446
-0.00421221
-0.000163443
-0.00408737
-0.000216695
-0.00397128
-0.000267528
-0.00386337
-0.000313953
-0.00375196
-0.000355349
-0.00361632
-0.00039185
-0.00342475
-0.00048136
-0.00294197
-0.000433634
-0.00314311
-0.000381809
-0.00330659
-0.000325731
-0.0034596
-0.000266076
-0.00361744
-0.000204839
-0.00378727
-0.000145624
-0.00396645
-9.33922e-05
-0.00414163
-5.35876e-05
-0.00429012
-3.08524e-05
-0.00438601
-2.78061e-05
-0.0044109
-4.4311e-05
-0.00436641
-7.75399e-05
-0.00427001
-0.000122651
-0.00414811
-0.00017404
-0.00402302
-0.000226638
-0.00390661
-0.000276803
-0.00379856
-0.000322558
-0.00368761
-0.000363283
-0.00355365
-0.000399118
-0.00336569
-0.000487806
-0.00288841
-0.000441103
-0.00308498
-0.000390313
-0.00324543
-0.000335283
-0.00339622
-0.000276678
-0.00355218
-0.000216467
-0.00372019
-0.000158204
-0.00389751
-0.000106789
-0.00407083
-6.7596e-05
-0.00421762
-4.52112e-05
-0.00431225
-4.22228e-05
-0.00433654
-5.84969e-05
-0.00429208
-9.12427e-05
-0.00419612
-0.00013568
-0.00407478
-0.000186278
-0.00395021
-0.000238031
-0.00383424
-0.000287346
-0.00372676
-0.000332269
-0.00361693
-0.000372183
-0.00348523
-0.000407238
-0.0033015
-0.000495013
-0.00283057
-0.000449487
-0.00302171
-0.000399912
-0.00317829
-0.000346137
-0.00332593
-0.00028881
-0.003479
-0.00022986
-0.00364412
-0.000172777
-0.00381852
-0.000122375
-0.00398902
-8.39397e-05
-0.00413339
-6.19836e-05
-0.00422634
-5.90552e-05
-0.00424999
-7.50242e-05
-0.00420591
-0.000107146
-0.00411105
-0.00015072
-0.00399114
-0.000200307
-0.00386805
-0.000250993
-0.0037535
-0.000299246
-0.0036475
-0.00034315
-0.00353957
-0.000382099
-0.00341082
-0.000416246
-0.00323202
-0.000503003
-0.00276839
-0.000458816
-0.00295318
-0.000410655
-0.00310492
-0.000358365
-0.00324832
-0.000302573
-0.00339729
-0.000245156
-0.00355823
-0.000189516
-0.00372842
-0.000140356
-0.00389495
-0.000102849
-0.004036
-8.14131e-05
-0.00412675
-7.85462e-05
-0.00414973
-9.4122e-05
-0.00410648
-0.000125454
-0.00401354
-0.000167941
-0.00389614
-0.000216264
-0.00377573
-0.000265623
-0.0036638
-0.000312573
-0.00356038
-0.000355247
-0.0034553
-0.00039306
-0.00333031
-0.000426163
-0.00315718
-0.00051178
-0.00270194
-0.000469105
-0.00287936
-0.000422568
-0.00302518
-0.000372014
-0.00316314
-0.000318043
-0.0033066
-0.000262462
-0.00346185
-0.000208563
-0.00362631
-0.000160909
-0.00378747
-0.000124527
-0.00392413
-0.000103717
-0.00401209
-0.000100913
-0.00403438
-0.000115993
-0.00399249
-0.000146342
-0.00390247
-0.000187485
-0.0037889
-0.000234255
-0.00367262
-0.000281994
-0.00356473
-0.00032737
-0.00346517
-0.000368585
-0.00336404
-0.000405075
-0.00324371
-0.000436993
-0.00307704
-0.000521328
-0.0026314
-0.00048034
-0.0028004
-0.000435648
-0.00293918
-0.000387098
-0.00307034
-0.000335255
-0.00320675
-0.000281844
-0.00335459
-0.000230019
-0.00351157
-0.000184165
-0.00366578
-0.000149129
-0.00379679
-0.000129065
-0.00388125
-0.000126324
-0.00390281
-0.000140791
-0.00386294
-0.000169939
-0.00377704
-0.000209449
-0.00366884
-0.00025434
-0.00355837
-0.000300137
-0.00345615
-0.000343648
-0.0033619
-0.000383155
-0.00326593
-0.000418128
-0.00315123
-0.000448714
-0.00299183
-0.000531609
-0.00255712
-0.000492483
-0.00271665
-0.000449856
-0.00284723
-0.000403584
-0.0029702
-0.000354192
-0.00309792
-0.000303306
-0.00323649
-0.000253911
-0.00338406
-0.000210179
-0.00352952
-0.000176733
-0.00365347
-0.000157546
-0.00373363
-0.00015487
-0.00375446
-0.000168593
-0.00371735
-0.0001963
-0.00363694
-0.000233859
-0.00353585
-0.000276521
-0.00343305
-0.000320032
-0.00333828
-0.000361369
-0.0032509
-0.000398914
-0.00316136
-0.000432171
-0.00305329
-0.000461282
-0.00290195
-0.000542562
-0.00247961
-0.000505459
-0.00262871
-0.000465112
-0.00274998
-0.000421385
-0.00286341
-0.000374767
-0.00298078
-0.000326768
-0.00310818
-0.000280175
-0.00324432
-0.000238903
-0.00337911
-0.000207306
-0.00349447
-0.000189137
-0.00356947
-0.000186525
-0.00358954
-0.000199365
-0.00355603
-0.000225372
-0.0034826
-0.000260646
-0.0033905
-0.000300714
-0.00329733
-0.000341585
-0.00321185
-0.000380439
-0.00313291
-0.000415771
-0.00305107
-0.000447122
-0.00295057
-0.000474622
-0.00280802
-0.000554097
-0.00239955
-0.000519163
-0.0025374
-0.000481285
-0.00264841
-0.000440352
-0.00275109
-0.000396812
-0.0028566
-0.000352049
-0.00297104
-0.000308624
-0.00309378
-0.000270151
-0.00321598
-0.000240666
-0.00332119
-0.000223657
-0.00339014
-0.00022111
-0.00340944
-0.000232923
-0.00338039
-0.000256969
-0.00331548
-0.000289621
-0.00323425
-0.000326734
-0.00315265
-0.000364625
-0.0030782
-0.000400703
-0.00300915
-0.000433589
-0.00293612
-0.000462864
-0.00284402
-0.000488632
-0.00271085
-0.000566106
-0.00231779
-0.000533453
-0.00244378
-0.000498201
-0.00254382
-0.000460268
-0.00263484
-0.000420068
-0.0027273
-0.000378851
-0.0028273
-0.000338928
-0.00293493
-0.000303568
-0.0030428
-0.000276442
-0.00313641
-0.000260731
-0.00319848
-0.000258246
-0.00321703
-0.000268896
-0.00319324
-0.000290734
-0.00313829
-0.000320451
-0.00306963
-0.00035428
-0.00300128
-0.000388888
-0.0029393
-0.000421936
-0.00288128
-0.000452185
-0.0028179
-0.000479244
-0.00273479
-0.000503183
-0.00261143
-0.000578455
-0.00223522
-0.000548161
-0.00234905
-0.000515639
-0.00243779
-0.000480851
-0.00251668
-0.000444185
-0.00259541
-0.000406753
-0.00268002
-0.000370598
-0.00277135
-0.000338612
-0.00286359
-0.000314054
-0.00294444
-0.000299755
-0.00299898
-0.000297333
-0.00301676
-0.000306702
-0.00299889
-0.000326122
-0.00295503
-0.000352646
-0.00290024
-0.000382928
-0.0028463
-0.000414018
-0.00279772
-0.000443852
-0.00275136
-0.000471326
-0.00269807
-0.000496079
-0.00262421
-0.000518124
-0.00251086
-0.000590998
-0.0021528
-0.000563098
-0.00225447
-0.000533347
-0.00233201
-0.000501771
-0.00239885
-0.000468738
-0.00246386
-0.000435225
-0.00253289
-0.000402999
-0.00260749
-0.000374555
-0.00268348
-0.000352705
-0.00275097
-0.000339898
-0.0027976
-0.000337536
-0.00281462
-0.000345543
-0.00280304
-0.000362406
-0.00277088
-0.00038557
-0.00273056
-0.000412145
-0.00269143
-0.000439587
-0.0026564
-0.000466112
-0.00262171
-0.000490752
-0.0025784
-0.000513165
-0.00251365
-0.000533283
-0.00241029
-0.000603582
-0.0020714
-0.000578064
-0.00216122
-0.000551057
-0.00222812
-0.000522668
-0.00228359
-0.000493252
-0.00233563
-0.00046366
-0.00238979
-0.000435388
-0.00244821
-0.000410526
-0.00250826
-0.000391426
-0.00256248
-0.000380138
-0.00260123
-0.000377836
-0.00261751
-0.000384453
-0.00261217
-0.000398714
-0.0025916
-0.000418478
-0.00256543
-0.000441323
-0.00254057
-0.000465117
-0.00251836
-0.000488351
-0.00249457
-0.000510184
-0.00246057
-0.000530282