/*--------------------------------*- C++ -*----------------------------------*\
| =========                 |                                                 |
| \\      /  F ield         | OpenFOAM: The Open Source CFD Toolbox           |
|  \\    /   O peration     | Version:  v2012                                 |
|   \\  /    A nd           | Website:  www.openfoam.com                      |
|    \\/     M anipulation  |                                                 |
\*---------------------------------------------------------------------------*/
FoamFile
{
    version     2.0;
    format      ascii;
    class       surfaceVectorField;
    location    "0.001";
    object      traction;
}
// * * * * * * * * * * * * * * * * * * * * * * * * * * * * * * * * * * * * * //

dimensions      [1 -1 -2 0 0 0 0];


internalField   uniform (0 0 0);

boundaryField
{
    PipeWalls
    {
        type            calculated;
        value           uniform (0 0 0);
    }
    Inlet
    {
        type            calculated;
        value           uniform (0 0 0);
    }
    Outlet
    {
        type            calculated;
        value           uniform (0 0 0);
    }
    Thermowell
    {
        type            calculated;
        value           nonuniform List<vector> 
3600
(
(-0.471407 0.693991 -0.070479)
(-0.472012 0.694975 -9.79842e-05)
(-0.471967 0.69488 -4.93332e-05)
(-0.47193 0.694806 -7.25666e-05)
(-0.471881 0.694707 -9.49935e-05)
(-0.471819 0.694583 -0.000119354)
(-0.471743 0.694431 -0.000146412)
(-0.471652 0.69425 -0.000176597)
(-0.471544 0.694035 -0.00021002)
(-0.471418 0.693785 -0.000247409)
(-0.471272 0.693495 -0.000289968)
(-0.471105 0.693164 -0.000338429)
(-0.470913 0.692785 -0.000393394)
(-0.470695 0.692353 -0.000456191)
(-0.470447 0.691861 -0.000528643)
(-0.470165 0.691301 -0.000612277)
(-0.469845 0.690662 -0.000708662)
(-0.469481 0.689934 -0.000820319)
(-0.469067 0.689104 -0.000950746)
(-0.468598 0.688158 -0.00110341)
(-0.468066 0.687078 -0.00128226)
(-0.46746 0.685842 -0.00149288)
(-0.466771 0.684424 -0.00174245)
(-0.465983 0.682794 -0.00203896)
(-0.465082 0.680914 -0.00239205)
(-0.464049 0.678735 -0.00281453)
(-0.462861 0.6762 -0.003323)
(-0.461489 0.673236 -0.00393743)
(-0.459898 0.669748 -0.00468302)
(-0.458042 0.665609 -0.00559342)
(-0.455865 0.660652 -0.00671293)
(-0.453289 0.65465 -0.00809839)
(-0.450215 0.647281 -0.0098261)
(-0.446504 0.638083 -0.0120021)
(-0.441961 0.626365 -0.0147758)
(-0.436295 0.611029 -0.0183603)
(-0.429042 0.590177 -0.023069)
(-0.419409 0.560211 -0.0295061)
(-0.405081 0.510411 -0.0370431)
(-0.387126 0.441216 -0.0513206)
(-0.399022 0.328596 -0.0331837)
(-0.399518 0.329017 -6.46982e-05)
(-0.399491 0.328984 -3.32585e-05)
(-0.399456 0.328941 -5.38112e-05)
(-0.399409 0.328884 -7.07579e-05)
(-0.399351 0.328812 -8.91609e-05)
(-0.399279 0.328724 -0.000109775)
(-0.399191 0.328618 -0.000133021)
(-0.399087 0.328492 -0.000158998)
(-0.398966 0.328345 -0.000188296)
(-0.398825 0.328175 -0.000221878)
(-0.398662 0.327979 -0.000260386)
(-0.398476 0.327755 -0.000304329)
(-0.398263 0.327499 -0.000354797)
(-0.398022 0.327207 -0.000413345)
(-0.397746 0.326874 -0.000481323)
(-0.397432 0.326495 -0.000560051)
(-0.397077 0.326064 -0.000651713)
(-0.396674 0.325574 -0.000759325)
(-0.396217 0.325015 -0.000885996)
(-0.395698 0.324378 -0.00103522)
(-0.395109 0.323652 -0.00121191)
(-0.39444 0.322821 -0.00142241)
(-0.393678 0.321867 -0.0016739)
(-0.392807 0.32077 -0.00197486)
(-0.391811 0.319505 -0.00233662)
(-0.390669 0.318038 -0.00277378)
(-0.389354 0.316329 -0.00330403)
(-0.387835 0.314327 -0.00394948)
(-0.386072 0.311966 -0.00473949)
(-0.384014 0.309156 -0.00571258)
(-0.381597 0.305779 -0.00691799)
(-0.378736 0.30167 -0.00842071)
(-0.375321 0.296599 -0.0103102)
(-0.371194 0.290218 -0.0127097)
(-0.366131 0.281984 -0.0157892)
(-0.359786 0.270974 -0.0197838)
(-0.351608 0.255488 -0.0250534)
(-0.340326 0.230675 -0.031246)
(-0.326159 0.197043 -0.0398193)
(-0.39241 0.168567 -0.0170272)
(-0.392882 0.168727 -3.96839e-05)
(-0.392865 0.168727 -2.3786e-05)
(-0.392833 0.168704 -3.92183e-05)
(-0.392791 0.168673 -5.17438e-05)
(-0.392737 0.168635 -6.54039e-05)
(-0.39267 0.168587 -8.08153e-05)
(-0.392589 0.16853 -9.83905e-05)
(-0.392493 0.168461 -0.000118315)
(-0.39238 0.168381 -0.000141037)
(-0.392249 0.168289 -0.000167227)
(-0.392097 0.168182 -0.000197466)
(-0.391923 0.168059 -0.000232301)
(-0.391724 0.167919 -0.000272634)
(-0.391497 0.167759 -0.000319725)
(-0.391239 0.167577 -0.000374798)
(-0.390944 0.167369 -0.000439099)
(-0.390611 0.167132 -0.000514502)
(-0.390233 0.166864 -0.000603513)
(-0.389803 0.166558 -0.000708963)
(-0.389315 0.166209 -0.000834118)
(-0.388762 0.165812 -0.000983318)
(-0.388132 0.165358 -0.00116214)
(-0.387415 0.164838 -0.00137707)
(-0.386595 0.16424 -0.00163585)
(-0.385657 0.16355 -0.00194853)
(-0.38458 0.162752 -0.002328)
(-0.383339 0.161823 -0.00279013)
(-0.381903 0.160736 -0.00335481)
(-0.380236 0.159456 -0.00404799)
(-0.378288 0.157937 -0.00490342)
(-0.375997 0.156114 -0.00596441)
(-0.373282 0.153903 -0.00728724)
(-0.370039 0.151186 -0.00894774)
(-0.366115 0.147781 -0.0110473)
(-0.361292 0.143409 -0.0137197)
(-0.355241 0.137603 -0.0171341)
(-0.347432 0.129523 -0.0214946)
(-0.336846 0.117098 -0.0265238)
(-0.323069 0.100206 -0.0323263)
(-0.388456 0.106662 -0.0107927)
(-0.388931 0.106755 -2.6926e-05)
(-0.388914 0.106758 -1.37591e-05)
(-0.388883 0.106742 -2.36713e-05)
(-0.388841 0.10672 -3.13331e-05)
(-0.388787 0.106692 -3.98495e-05)
(-0.38872 0.106658 -4.95963e-05)
(-0.388639 0.106617 -6.09489e-05)
(-0.388543 0.106569 -7.41724e-05)
(-0.38843 0.106512 -8.95944e-05)
(-0.388298 0.106446 -0.000107629)
(-0.388146 0.10637 -0.000128765)
(-0.387971 0.106282 -0.000153555)
(-0.387771 0.106182 -0.000182706)
(-0.387543 0.106068 -0.000217151)
(-0.387282 0.105938 -0.000257951)
(-0.386986 0.10579 -0.000306298)
(-0.38665 0.105622 -0.000363743)
(-0.386268 0.105431 -0.000432277)
(-0.385835 0.105212 -0.000514366)
(-0.385342 0.104964 -0.000612963)
(-0.384783 0.10468 -0.000731761)
(-0.384147 0.104357 -0.000875417)
(-0.383421 0.103985 -0.00104959)
(-0.382592 0.103558 -0.00126113)
(-0.381642 0.103066 -0.00151867)
(-0.38055 0.102497 -0.00183314)
(-0.379292 0.101834 -0.00221822)
(-0.377835 0.101059 -0.00269115)
(-0.376142 0.100148 -0.00327392)
(-0.374163 0.0990665 -0.00399479)
(-0.371835 0.0977721 -0.00488994)
(-0.369076 0.0962066 -0.00600575)
(-0.365781 0.0942881 -0.00740232)
(-0.361798 0.0918974 -0.0091563)
(-0.356917 0.0888525 -0.0113611)
(-0.350824 0.0848631 -0.0141152)
(-0.343037 0.0794322 -0.0174772)
(-0.332727 0.0715693 -0.0211448)
(-0.319376 0.0611357 -0.0239628)
(-0.375585 0.0682128 -0.00690091)
(-0.376046 0.0682714 -1.59926e-05)
(-0.37603 0.0682731 -3.85894e-06)
(-0.376 0.0682608 -8.59102e-06)
(-0.375959 0.0682445 -1.14187e-05)
(-0.375907 0.0682234 -1.48232e-05)
(-0.375842 0.0681974 -1.89893e-05)
(-0.375763 0.0681662 -2.42309e-05)
(-0.375669 0.0681295 -3.08108e-05)
(-0.375559 0.0680865 -3.8959e-05)
(-0.375431 0.0680368 -4.89253e-05)
(-0.375283 0.0679796 -6.10868e-05)
(-0.375113 0.0679141 -7.59242e-05)
(-0.374918 0.0678392 -9.39722e-05)
(-0.374696 0.0677538 -0.000115919)
(-0.374442 0.0676565 -0.000142647)
(-0.374153 0.0675458 -0.000175212)
(-0.373825 0.0674199 -0.000214877)
(-0.373453 0.0672766 -0.000263211)
(-0.37303 0.0671133 -0.000322297)
(-0.37255 0.0669273 -0.000394674)
(-0.372004 0.0667149 -0.000483421)
(-0.371382 0.0664721 -0.00059238)
(-0.370673 0.0661939 -0.00072636)
(-0.369863 0.0658746 -0.000891256)
(-0.368935 0.0655065 -0.00109434)
(-0.367868 0.065081 -0.00134476)
(-0.366639 0.0645866 -0.00165409)
(-0.365217 0.0640098 -0.00203691)
(-0.363565 0.0633323 -0.00251154)
(-0.361636 0.0625317 -0.0031013)
(-0.359371 0.0615772 -0.0038359)
(-0.356694 0.0604293 -0.00475277)
(-0.353505 0.0590311 -0.00589866)
(-0.349673 0.0573061 -0.00733018)
(-0.345013 0.0551394 -0.00910995)
(-0.33927 0.0523623 -0.0112876)
(-0.332079 0.0487081 -0.0138403)
(-0.322914 0.0437886 -0.0164687)
(-0.311488 0.037775 -0.0176984)
(-0.366062 0.0455206 -0.00460346)
(-0.366514 0.0455598 -6.39777e-06)
(-0.366497 0.0455609 5.69101e-06)
(-0.366468 0.0455515 5.92301e-06)
(-0.366429 0.0455392 7.77439e-06)
(-0.366378 0.0455232 9.352e-06)
(-0.366315 0.0455033 1.05994e-05)
(-0.366238 0.0454794 1.12733e-05)
(-0.366147 0.0454514 1.11625e-05)
(-0.366041 0.0454188 1.0119e-05)
(-0.365916 0.0453812 8.00125e-06)
(-0.365772 0.045338 4.54986e-06)
(-0.365606 0.0452885 -5.95245e-07)
(-0.365417 0.045232 -7.8123e-06)
(-0.3652 0.0451676 -1.76032e-05)
(-0.364953 0.0450943 -3.06496e-05)
(-0.364672 0.045011 -4.78361e-05)
(-0.364352 0.0449162 -7.01608e-05)
(-0.363989 0.0448083 -9.88219e-05)
(-0.363577 0.0446853 -0.000135528)
(-0.363108 0.0445451 -0.000182342)
(-0.362575 0.0443848 -0.000241759)
(-0.361969 0.0442015 -0.000316883)
(-0.361276 0.0439915 -0.000411681)
(-0.360484 0.0437507 -0.000531064)
(-0.359577 0.0434733 -0.000681017)
(-0.358534 0.0431528 -0.000869057)
(-0.357332 0.0427809 -0.0011047)
(-0.355942 0.0423478 -0.00139994)
(-0.354328 0.0418399 -0.00176972)
(-0.352444 0.0412414 -0.00223292)
(-0.350234 0.0405306 -0.00281337)
(-0.347628 0.0396798 -0.00354053)
(-0.344532 0.0386494 -0.00445006)
(-0.340828 0.0373896 -0.00558281)
(-0.336357 0.0358276 -0.00697921)
(-0.330911 0.0338663 -0.00865826)
(-0.324224 0.0313685 -0.0105603)
(-0.315981 0.0282234 -0.0124143)
(-0.306085 0.0247411 -0.0128527)
(-0.359725 0.0309839 -0.00313135)
(-0.360171 0.0310118 2.01031e-06)
(-0.360155 0.0310121 1.50891e-05)
(-0.360126 0.0310054 2.02322e-05)
(-0.360087 0.0309964 2.65762e-05)
(-0.360037 0.0309845 3.3065e-05)
(-0.359975 0.0309696 3.96197e-05)
(-0.3599 0.0309518 4.60893e-05)
(-0.35981 0.0309308 5.23354e-05)
(-0.359705 0.0309065 5.82818e-05)
(-0.359583 0.0308784 6.38655e-05)
(-0.359441 0.0308463 6.89478e-05)
(-0.359279 0.0308096 7.33204e-05)
(-0.359092 0.0307677 7.67557e-05)
(-0.358879 0.0307197 7.89052e-05)
(-0.358637 0.0306653 7.93091e-05)
(-0.35836 0.0306037 7.72718e-05)
(-0.358046 0.0305333 7.20447e-05)
(-0.357689 0.0304531 6.27803e-05)
(-0.357283 0.0303619 4.81343e-05)
(-0.356821 0.0302578 2.65624e-05)
(-0.356296 0.0301386 -3.86587e-06)
(-0.355698 0.0300022 -4.55586e-05)
(-0.355014 0.0298459 -0.000101641)
(-0.354233 0.029667 -0.000176025)
(-0.353337 0.0294608 -0.000273446)
(-0.352306 0.0292229 -0.000399888)
(-0.351119 0.0289471 -0.000562851)
(-0.349745 0.0286262 -0.000771793)
(-0.34815 0.0282504 -0.00103838)
(-0.346289 0.0278087 -0.00137747)
(-0.344109 0.0272857 -0.00180742)
(-0.34154 0.026662 -0.0023505)
(-0.338497 0.0259104 -0.003033)
(-0.334869 0.024998 -0.00388334)
(-0.330518 0.0238791 -0.00492643)
(-0.325273 0.0224974 -0.0061641)
(-0.318939 0.0207852 -0.00752814)
(-0.311346 0.018743 -0.0087938)
(-0.302543 0.0166932 -0.00885065)
(-0.355573 0.0202084 -0.00203947)
(-0.356015 0.0202277 9.90752e-06)
(-0.355998 0.0202275 2.45651e-05)
(-0.35597 0.0202234 3.43863e-05)
(-0.355931 0.0202174 4.51925e-05)
(-0.355882 0.0202094 5.65112e-05)
(-0.35582 0.0201991 6.8299e-05)
(-0.355746 0.0201868 8.04777e-05)
(-0.355657 0.0201723 9.29948e-05)
(-0.355553 0.0201554 0.000105836)
(-0.355432 0.020136 0.000119008)
(-0.355292 0.0201137 0.000132492)
(-0.355131 0.0200883 0.000146241)
(-0.354947 0.0200594 0.000160185)
(-0.354737 0.0200263 0.00017414)
(-0.354497 0.0199886 0.00018781)
(-0.354223 0.019946 0.00020077)
(-0.353912 0.0198973 0.000212526)
(-0.353559 0.0198418 0.000222461)
(-0.353157 0.0197787 0.000229686)
(-0.352699 0.0197067 0.000233211)
(-0.352179 0.0196242 0.000231599)
(-0.351585 0.01953 0.000223134)
(-0.350906 0.0194214 0.000205553)
(-0.35013 0.0192978 0.000175926)
(-0.349239 0.0191553 0.000130746)
(-0.348215 0.0189913 6.54972e-05)
(-0.347034 0.0188012 -2.53302e-05)
(-0.345668 0.0185797 -0.000148707)
(-0.344082 0.0183208 -0.000313073)
(-0.342232 0.0180173 -0.00052958)
(-0.340066 0.0176587 -0.000811433)
(-0.337516 0.0172325 -0.0011744)
(-0.334502 0.0167205 -0.00163672)
(-0.330919 0.0161025 -0.00221699)
(-0.326644 0.0153507 -0.00292979)
(-0.321534 0.0144338 -0.0037697)
(-0.315447 0.0133215 -0.00467757)
(-0.308305 0.0120505 -0.00548813)
(-0.300262 0.010887 -0.00538738)
(-0.353201 0.01147 -0.00115362)
(-0.353641 0.0114818 1.75267e-05)
(-0.353624 0.0114817 3.42114e-05)
(-0.353595 0.0114796 4.84904e-05)
(-0.353556 0.0114765 6.37487e-05)
(-0.353507 0.0114721 7.9857e-05)
(-0.353445 0.0114663 9.68231e-05)
(-0.353371 0.0114592 0.000114645)
(-0.353283 0.0114508 0.000133365)
(-0.35318 0.0114409 0.000153028)
(-0.353059 0.0114294 0.000173703)
(-0.35292 0.0114163 0.000195494)
(-0.352761 0.0114015 0.000218525)
(-0.352578 0.0113845 0.000242884)
(-0.352369 0.011365 0.000268542)
(-0.352131 0.0113429 0.000295391)
(-0.351859 0.0113178 0.000323265)
(-0.35155 0.0112891 0.000351916)
(-0.351199 0.0112564 0.000381004)
(-0.350799 0.0112193 0.000410075)
(-0.350343 0.011177 0.000438607)
(-0.349824 0.0111285 0.000465793)
(-0.349232 0.0110731 0.000490546)
(-0.348556 0.0110095 0.000511417)
(-0.347781 0.0109371 0.000526519)
(-0.346891 0.0108538 0.000533497)
(-0.345868 0.0107577 0.000529344)
(-0.344688 0.0106469 0.000510551)
(-0.343323 0.0105169 0.000472466)
(-0.341738 0.0103647 0.000409933)
(-0.33989 0.0101879 0.000315268)
(-0.337726 0.00997801 0.000180192)
(-0.335182 0.00973114 -5.0691e-06)
(-0.332177 0.00943262 -0.000251761)
(-0.328614 0.0090741 -0.000570287)
(-0.324378 0.00864044 -0.000968717)
(-0.319345 0.00811604 -0.00144097)
(-0.313406 0.00749015 -0.00194706)
(-0.306538 0.00680329 -0.00238962)
(-0.298961 0.00622074 -0.0022424)
(-0.352305 0.00384061 -0.000379913)
(-0.352745 0.00384531 2.49932e-05)
(-0.352727 0.00384558 4.40325e-05)
(-0.352698 0.00384534 6.26408e-05)
(-0.352659 0.00384478 8.23432e-05)
(-0.352609 0.00384375 0.000103214)
(-0.352548 0.00384217 0.000125317)
(-0.352474 0.00384008 0.000148733)
(-0.352386 0.00383746 0.000173603)
(-0.352283 0.00383426 0.000200032)
(-0.352163 0.00383047 0.000228149)
(-0.352024 0.00382614 0.000258187)
(-0.351865 0.00382121 0.000290444)
(-0.351683 0.00381556 0.000325166)
(-0.351475 0.00380904 0.000362472)
(-0.351237 0.00380159 0.000402459)
(-0.350967 0.0037931 0.000445219)
(-0.350659 0.00378339 0.000490751)
(-0.350308 0.00377234 0.000539003)
(-0.349909 0.00375984 0.000589943)
(-0.349454 0.00374569 0.000643547)
(-0.348935 0.0037296 0.000699605)
(-0.348343 0.00371118 0.000757666)
(-0.347665 0.00369007 0.000817095)
(-0.346889 0.003666 0.00087705)
(-0.345998 0.00363824 0.000936359)
(-0.344973 0.00360614 0.00099352)
(-0.34379 0.00356908 0.00104688)
(-0.342421 0.0035254 0.00109429)
(-0.340831 0.00347397 0.00113328)
(-0.338978 0.00341443 0.00116025)
(-0.336809 0.00334335 0.00117151)
(-0.33426 0.00325938 0.00116299)
(-0.331251 0.00315746 0.00113)
(-0.327687 0.00303502 0.00106834)
(-0.323459 0.00288735 0.000975091)
(-0.318451 0.00271028 0.00085307)
(-0.312571 0.00250346 0.000718078)
(-0.305822 0.00229853 0.0005954)
(-0.298431 0.00214083 0.000738718)
(-0.352663 -0.00342903 0.000357415)
(-0.353103 -0.0034313 3.24359e-05)
(-0.353084 -0.00343059 5.40051e-05)
(-0.353055 -0.00342929 7.69014e-05)
(-0.353016 -0.00342757 0.000101047)
(-0.352966 -0.0034255 0.000126657)
(-0.352904 -0.00342315 0.000153861)
(-0.35283 -0.00342052 0.000182822)
(-0.352742 -0.0034176 0.000213794)
(-0.352639 -0.00341437 0.000246938)
(-0.352519 -0.00341077 0.000282451)
(-0.352381 -0.00340671 0.0003207)
(-0.352222 -0.00340209 0.000362151)
(-0.352041 -0.00339683 0.000407207)
(-0.351833 -0.00339091 0.000456134)
(-0.351596 -0.00338422 0.000509239)
(-0.351325 -0.00337664 0.000566886)
(-0.351017 -0.00336798 0.000629316)
(-0.350667 -0.00335807 0.000696776)
(-0.350267 -0.00334664 0.000769658)
(-0.349812 -0.00333346 0.000848446)
(-0.349293 -0.00331823 0.000933503)
(-0.348699 -0.00330073 0.00102502)
(-0.34802 -0.00328062 0.0011232)
(-0.347242 -0.00325751 0.00122823)
(-0.346347 -0.00323094 0.00134013)
(-0.345318 -0.00320043 0.00145888)
(-0.34413 -0.00316528 0.0015847)
(-0.342755 -0.0031249 0.00171791)
(-0.341158 -0.00307819 0.00185887)
(-0.339296 -0.00302371 0.00200783)
(-0.337117 -0.00296029 0.0021657)
(-0.334555 -0.00288573 0.00233397)
(-0.331532 -0.00279751 0.00251421)
(-0.327953 -0.00269214 0.00270834)
(-0.323707 -0.00256504 0.00291757)
(-0.318679 -0.00241019 0.00314021)
(-0.312777 -0.0022194 0.00336542)
(-0.306006 -0.00198301 0.0035568)
(-0.298576 -0.00173139 0.00365857)
(-0.354318 -0.011199 0.00114537)
(-0.354759 -0.0112089 3.99874e-05)
(-0.354741 -0.0112077 6.4081e-05)
(-0.354712 -0.0112048 9.12981e-05)
(-0.354672 -0.0112008 0.000119904)
(-0.354622 -0.0111956 0.000150245)
(-0.35456 -0.0111893 0.000182524)
(-0.354485 -0.0111819 0.000216999)
(-0.354397 -0.0111733 0.000254034)
(-0.354294 -0.0111634 0.000293854)
(-0.354174 -0.0111522 0.000336737)
(-0.354036 -0.0111394 0.000383184)
(-0.353877 -0.0111249 0.000433818)
(-0.353695 -0.0111084 0.000489202)
(-0.353487 -0.0110895 0.000549756)
(-0.35325 -0.0110681 0.000615998)
(-0.352979 -0.0110437 0.000688565)
(-0.352671 -0.0110157 0.000767947)
(-0.352319 -0.0109837 0.000854705)
(-0.351919 -0.0109471 0.000949655)
(-0.351462 -0.0109053 0.00105378)
(-0.35094 -0.0108571 0.00116802)
(-0.350344 -0.0108018 0.00129322)
(-0.349661 -0.0107384 0.0014304)
(-0.348879 -0.0106655 0.00158081)
(-0.347979 -0.0105815 0.00174563)
(-0.346944 -0.0104848 0.00192637)
(-0.345748 -0.0103731 0.00212515)
(-0.344364 -0.0102441 0.00234471)
(-0.342755 -0.010094 0.00258832)
(-0.34088 -0.00991866 0.00286003)
(-0.338684 -0.00971307 0.00316538)
(-0.336103 -0.00947038 0.00351154)
(-0.333055 -0.00918102 0.00390649)
(-0.329443 -0.00883417 0.00435871)
(-0.325153 -0.00841536 0.00487421)
(-0.320059 -0.0079068 0.00544813)
(-0.314051 -0.00728824 0.00604547)
(-0.307106 -0.00656378 0.00656465)
(-0.299425 -0.00584951 0.0066223)
(-0.357501 -0.0202449 0.00206224)
(-0.357946 -0.020263 4.75699e-05)
(-0.357927 -0.0202614 7.41954e-05)
(-0.357898 -0.0202568 0.000105865)
(-0.357857 -0.0202503 0.000138983)
(-0.357806 -0.0202418 0.000174063)
(-0.357744 -0.0202314 0.000211409)
(-0.357668 -0.020219 0.000251377)
(-0.35758 -0.0202046 0.000294449)
(-0.357476 -0.0201878 0.00034092)
(-0.357356 -0.0201685 0.000391174)
(-0.357217 -0.0201466 0.000445843)
(-0.357057 -0.0201217 0.000505686)
(-0.356874 -0.0200931 0.000571427)
(-0.356666 -0.0200605 0.00064365)
(-0.356427 -0.0200233 0.000723091)
(-0.356155 -0.0199808 0.000810655)
(-0.355845 -0.0199321 0.000907093)
(-0.355492 -0.0198764 0.00101331)
(-0.355088 -0.0198128 0.00113053)
(-0.354628 -0.0197401 0.00126024)
(-0.354103 -0.0196566 0.00140393)
(-0.353501 -0.0195606 0.00156312)
(-0.352813 -0.0194503 0.00173969)
(-0.352023 -0.0193237 0.00193589)
(-0.351115 -0.0191774 0.00215415)
(-0.350069 -0.0190086 0.00239748)
(-0.348861 -0.0188136 0.00266996)
(-0.347462 -0.0185877 0.00297673)
(-0.345835 -0.0183243 0.00332404)
(-0.343939 -0.018016 0.00371976)
(-0.341717 -0.0176535 0.00417425)
(-0.339104 -0.0172243 0.0047006)
(-0.336016 -0.0167108 0.00531373)
(-0.33235 -0.016093 0.00602994)
(-0.327981 -0.0153436 0.006862)
(-0.322767 -0.0144282 0.00780581)
(-0.316562 -0.0133055 0.00880769)
(-0.309287 -0.0119783 0.00970268)
(-0.301079 -0.0106355 0.00975992)
(-0.362583 -0.0315773 0.0032104)
(-0.363032 -0.0316049 5.54916e-05)
(-0.363014 -0.031603 8.43369e-05)
(-0.362984 -0.0315964 0.00012066)
(-0.362943 -0.031587 0.000158389)
(-0.362891 -0.0315749 0.000198252)
(-0.362827 -0.03156 0.000240677)
(-0.362751 -0.0315423 0.000286131)
(-0.362661 -0.0315216 0.000335222)
(-0.362556 -0.0314974 0.000388344)
(-0.362435 -0.0314696 0.000446011)
(-0.362295 -0.0314378 0.000508978)
(-0.362134 -0.0314016 0.000578108)
(-0.361949 -0.0313599 0.000654282)
(-0.361738 -0.0313123 0.000738266)
(-0.361497 -0.0312578 0.000831014)
(-0.361222 -0.0311957 0.000933708)
(-0.360909 -0.0311244 0.00104739)
(-0.360551 -0.0310428 0.00117332)
(-0.360143 -0.0309495 0.00131316)
(-0.359677 -0.030843 0.00146882)
(-0.359144 -0.0307204 0.00164237)
(-0.358534 -0.0305796 0.00183603)
(-0.357835 -0.0304178 0.0020525)
(-0.357033 -0.0302317 0.00229513)
(-0.356112 -0.0300166 0.00256754)
(-0.355049 -0.029768 0.00287439)
(-0.353822 -0.0294802 0.00322166)
(-0.3524 -0.0291461 0.00361694)
(-0.350746 -0.0287555 0.00406951)
(-0.348816 -0.0282973 0.00459126)
(-0.346555 -0.0277566 0.00519749)
(-0.343892 -0.0271145 0.00590772)
(-0.340741 -0.026343 0.00674476)
(-0.336992 -0.0254099 0.0077346)
(-0.332503 -0.0242695 0.00890028)
(-0.327105 -0.0228617 0.010245)
(-0.320598 -0.0211061 0.0117066)
(-0.312811 -0.0189721 0.0130675)
(-0.30375 -0.0166633 0.0132414)
(-0.370139 -0.0469434 0.00476647)
(-0.370596 -0.0469837 6.37331e-05)
(-0.370578 -0.046982 9.45001e-05)
(-0.370548 -0.0469731 0.000135791)
(-0.370506 -0.0469603 0.000178287)
(-0.370452 -0.0469439 0.000223016)
(-0.370386 -0.0469238 0.00027056)
(-0.370308 -0.0469001 0.0003215)
(-0.370217 -0.0468724 0.000376608)
(-0.37011 -0.0468401 0.000436413)
(-0.369987 -0.0468028 0.000501601)
(-0.369845 -0.0467599 0.000573024)
(-0.36968 -0.0467107 0.000651603)
(-0.369492 -0.0466542 0.000738368)
(-0.369277 -0.0465894 0.000834274)
(-0.369032 -0.0465154 0.0009405)
(-0.368752 -0.0464309 0.00105853)
(-0.368433 -0.0463341 0.00118974)
(-0.368069 -0.0462232 0.00133582)
(-0.367653 -0.0460963 0.00149879)
(-0.367176 -0.045951 0.00168098)
(-0.366632 -0.045784 0.00188503)
(-0.366008 -0.045592 0.00211385)
(-0.365294 -0.0453713 0.00237103)
(-0.364474 -0.0451172 0.00266096)
(-0.363531 -0.0448234 0.00298863)
(-0.362443 -0.0444834 0.00336038)
(-0.361186 -0.0440887 0.00378413)
(-0.359729 -0.0436294 0.0042699)
(-0.358033 -0.0430911 0.00483015)
(-0.356053 -0.0424579 0.00548095)
(-0.353732 -0.0417084 0.00624291)
(-0.350995 -0.0408144 0.00714254)
(-0.347751 -0.0397359 0.00821194)
(-0.343878 -0.0384224 0.00948946)
(-0.339216 -0.0368015 0.0110132)
(-0.333555 -0.0347703 0.0128033)
(-0.326624 -0.0321795 0.0148064)
(-0.318107 -0.0288955 0.0167739)
(-0.3078 -0.0250114 0.0172978)
(-0.380884 -0.0700389 0.00710433)
(-0.381351 -0.0700978 7.2531e-05)
(-0.381334 -0.0700975 0.000104709)
(-0.381303 -0.0700856 0.000151378)
(-0.381259 -0.0700685 0.000198853)
(-0.381203 -0.0700466 0.000248576)
(-0.381135 -0.0700202 0.000301313)
(-0.381055 -0.0699889 0.000357795)
(-0.380961 -0.0699526 0.000418951)
(-0.380852 -0.0699106 0.000485537)
(-0.380725 -0.0698618 0.00055844)
(-0.380579 -0.0698054 0.000638576)
(-0.38041 -0.0697403 0.000726874)
(-0.380217 -0.0696654 0.000824478)
(-0.379996 -0.0695796 0.000932568)
(-0.379743 -0.0694817 0.00105257)
(-0.379456 -0.0693699 0.00118627)
(-0.379128 -0.0692421 0.00133548)
(-0.378753 -0.0690956 0.00150233)
(-0.378324 -0.0689275 0.00168921)
(-0.377833 -0.0687344 0.00189878)
(-0.377271 -0.0685125 0.00213424)
(-0.376627 -0.0682573 0.00239926)
(-0.375889 -0.0679637 0.00269831)
(-0.375042 -0.0676254 0.0030369)
(-0.374067 -0.0672345 0.00342147)
(-0.372943 -0.0667809 0.00386015)
(-0.371643 -0.0662534 0.00436287)
(-0.370133 -0.0656373 0.00494205)
(-0.368377 -0.064914 0.00561355)
(-0.366324 -0.0640603 0.0063979)
(-0.363915 -0.0630464 0.00732142)
(-0.361071 -0.0618314 0.00841841)
(-0.357693 -0.0603592 0.00973214)
(-0.353644 -0.0585512 0.0113165)
(-0.348739 -0.0562949 0.0132312)
(-0.342721 -0.0534164 0.0155263)
(-0.335221 -0.0496418 0.0181834)
(-0.325725 -0.0446046 0.0209599)
(-0.313717 -0.0380461 0.0222469)
(-0.394935 -0.108598 0.0110051)
(-0.395418 -0.108691 8.20441e-05)
(-0.395402 -0.108694 0.00011503)
(-0.395368 -0.108678 0.000167625)
(-0.395322 -0.108654 0.000220346)
(-0.395264 -0.108625 0.000275252)
(-0.395193 -0.108589 0.000333318)
(-0.395109 -0.108548 0.000395448)
(-0.395012 -0.108499 0.000462733)
(-0.394899 -0.108444 0.000536265)
(-0.394768 -0.108379 0.000617192)
(-0.394617 -0.108304 0.000706437)
(-0.394441 -0.108217 0.000804867)
(-0.39424 -0.108116 0.000913697)
(-0.394011 -0.108001 0.00103438)
(-0.393748 -0.10787 0.0011686)
(-0.39345 -0.10772 0.00131847)
(-0.393109 -0.10755 0.00148634)
(-0.39272 -0.107354 0.00167487)
(-0.392274 -0.107128 0.00188677)
(-0.391762 -0.106868 0.00212494)
(-0.391176 -0.106569 0.00239313)
(-0.390504 -0.106225 0.00269585)
(-0.389733 -0.105829 0.00303846)
(-0.388849 -0.105373 0.00342762)
(-0.387831 -0.104845 0.00387146)
(-0.386657 -0.104232 0.00438001)
(-0.385297 -0.103516 0.00496523)
(-0.383717 -0.102678 0.00564203)
(-0.381878 -0.101692 0.00642988)
(-0.379726 -0.100524 0.00735414)
(-0.377199 -0.0991321 0.00844744)
(-0.374211 -0.097456 0.00975277)
(-0.370656 -0.0954149 0.0113269)
(-0.366377 -0.0928874 0.0132431)
(-0.361164 -0.0896943 0.0155906)
(-0.354702 -0.0855455 0.0184662)
(-0.346507 -0.0799406 0.0219224)
(-0.33582 -0.0720432 0.0257765)
(-0.32175 -0.0608746 0.0285563)
(-0.41607 -0.180723 0.0183071)
(-0.41658 -0.180895 9.3473e-05)
(-0.416564 -0.1809 0.000125797)
(-0.416528 -0.180877 0.000184793)
(-0.416479 -0.180844 0.000243026)
(-0.416418 -0.180802 0.000303337)
(-0.416343 -0.180753 0.000366937)
(-0.416255 -0.180694 0.000434909)
(-0.416153 -0.180626 0.000508495)
(-0.416035 -0.180548 0.000589237)
(-0.415898 -0.180457 0.000678598)
(-0.415739 -0.180351 0.000777461)
(-0.415555 -0.180227 0.000886552)
(-0.415344 -0.180085 0.00100713)
(-0.415102 -0.179922 0.00114098)
(-0.414826 -0.179736 0.00129007)
(-0.414512 -0.179523 0.00145681)
(-0.414154 -0.179281 0.00164424)
(-0.413744 -0.179002 0.00185563)
(-0.413273 -0.178681 0.00209392)
(-0.412733 -0.17831 0.00236225)
(-0.412113 -0.177884 0.00266488)
(-0.411402 -0.177393 0.00300724)
(-0.410587 -0.176826 0.00339566)
(-0.409649 -0.176171 0.00383794)
(-0.408571 -0.175414 0.0043441)
(-0.407325 -0.174533 0.00492628)
(-0.40588 -0.173501 0.00559847)
(-0.404201 -0.172289 0.00637818)
(-0.402243 -0.170861 0.00728874)
(-0.39995 -0.169163 0.00836082)
(-0.397251 -0.16713 0.00963393)
(-0.394054 -0.164669 0.0111608)
(-0.390237 -0.161655 0.013014)
(-0.385622 -0.15789 0.0152902)
(-0.37996 -0.153078 0.018116)
(-0.372864 -0.146719 0.0216549)
(-0.363696 -0.137888 0.0260715)
(-0.351339 -0.124772 0.0312978)
(-0.334474 -0.105319 0.0367026)
(-0.41422 -0.293918 0.0296854)
(-0.414734 -0.294238 0.000104797)
(-0.414713 -0.294231 0.000137038)
(-0.414675 -0.294195 0.000203164)
(-0.414622 -0.294145 0.000267118)
(-0.414556 -0.294082 0.000333107)
(-0.414478 -0.294008 0.000402562)
(-0.414385 -0.293919 0.000476728)
(-0.414277 -0.293816 0.000556992)
(-0.414153 -0.293698 0.00064538)
(-0.414008 -0.29356 0.000743689)
(-0.413841 -0.293398 0.000852755)
(-0.413646 -0.29321 0.000973171)
(-0.413423 -0.292994 0.00110626)
(-0.413168 -0.292747 0.00125414)
(-0.412877 -0.292463 0.00141909)
(-0.412545 -0.292138 0.00160383)
(-0.412166 -0.291769 0.00181212)
(-0.411733 -0.291345 0.00204789)
(-0.411236 -0.290855 0.00231434)
(-0.410663 -0.290289 0.00261489)
(-0.410008 -0.289638 0.00295437)
(-0.409256 -0.288889 0.00333922)
(-0.408393 -0.288023 0.00377677)
(-0.407401 -0.287022 0.0042761)
(-0.406261 -0.285865 0.00484926)
(-0.404944 -0.284516 0.00551063)
(-0.403419 -0.282939 0.0062765)
(-0.401646 -0.281084 0.00716728)
(-0.399583 -0.278897 0.00821072)
(-0.397171 -0.276299 0.00944356)
(-0.394338 -0.273186 0.0109133)
(-0.390989 -0.269414 0.0126844)
(-0.387005 -0.264795 0.0148483)
(-0.382206 -0.259016 0.0175311)
(-0.376344 -0.251618 0.0209084)
(-0.36904 -0.241805 0.025239)
(-0.359666 -0.22806 0.0308738)
(-0.347091 -0.20705 0.0379185)
(-0.330559 -0.176821 0.0485997)
(-0.51599 -0.62269 0.063096)
(-0.516668 -0.623487 0.000130285)
(-0.516624 -0.623427 0.000151718)
(-0.516577 -0.623368 0.000224384)
(-0.516518 -0.623292 0.000294594)
(-0.516445 -0.623198 0.000367017)
(-0.516358 -0.623084 0.000443192)
(-0.516255 -0.622947 0.00052451)
(-0.516134 -0.622784 0.000612474)
(-0.515993 -0.622593 0.000709594)
(-0.51583 -0.622372 0.000817967)
(-0.515641 -0.622115 0.000938416)
(-0.515422 -0.621818 0.00107151)
(-0.515171 -0.621475 0.00121866)
(-0.514883 -0.621081 0.00138236)
(-0.514553 -0.620627 0.00156517)
(-0.514174 -0.620104 0.00177014)
(-0.513741 -0.619503 0.0020018)
(-0.513246 -0.618813 0.00226464)
(-0.512677 -0.61802 0.0025622)
(-0.512023 -0.617106 0.00289831)
(-0.511273 -0.616052 0.00327844)
(-0.510411 -0.614835 0.00371001)
(-0.509418 -0.613423 0.0042014)
(-0.508272 -0.611782 0.00476295)
(-0.50695 -0.609872 0.00540868)
(-0.505419 -0.60764 0.00615503)
(-0.503641 -0.605021 0.00702049)
(-0.501569 -0.601932 0.00802824)
(-0.499148 -0.598267 0.00921003)
(-0.496303 -0.593884 0.0106079)
(-0.492938 -0.588587 0.0122761)
(-0.488927 -0.582106 0.0142887)
(-0.484104 -0.574057 0.0167519)
(-0.478218 -0.563854 0.0198131)
(-0.470909 -0.550568 0.0236814)
(-0.461594 -0.532598 0.0286747)
(-0.449222 -0.506718 0.0352486)
(-0.431431 -0.465279 0.0433709)
(-0.408239 -0.406932 0.0541166)
(-0.885486 -0.309585 -0.0897782)
(-0.521089 -0.246284 -0.0526469)
(-0.336988 -0.207386 -0.0340156)
(-0.25096 -0.172404 -0.0253313)
(-0.204206 -0.138236 -0.0206073)
(-0.176155 -0.107673 -0.0177703)
(-0.158289 -0.0806883 -0.0159626)
(-0.146694 -0.056225 -0.0147894)
(-0.139611 -0.0333926 -0.0140726)
(-0.136241 -0.0114631 -0.0137316)
(-0.136231 0.010197 -0.0137306)
(-0.139581 0.032143 -0.0140697)
(-0.146651 0.0550052 -0.0147857)
(-0.158199 0.0794705 -0.0159546)
(-0.175964 0.106459 -0.0177513)
(-0.20396 0.137059 -0.020583)
(-0.250682 0.171233 -0.0253056)
(-0.33658 0.206168 -0.0339776)
(-0.520627 0.245046 -0.0526029)
(-0.885098 0.308456 -0.0897408)
(-0.886709 -0.310002 1.49075e-05)
(-0.52171 -0.246581 4.6425e-05)
(-0.337343 -0.207632 7.03285e-05)
(-0.251225 -0.172614 8.24179e-05)
(-0.204422 -0.138403 8.9567e-05)
(-0.176343 -0.1078 9.56257e-05)
(-0.158462 -0.0807833 0.000100606)
(-0.146857 -0.0562918 0.000104033)
(-0.139767 -0.0334325 0.000106229)
(-0.136394 -0.0114772 0.000107178)
(-0.136383 0.0102084 0.000106979)
(-0.139736 0.0321795 0.000105654)
(-0.146812 0.0550681 0.000102656)
(-0.158372 0.0795642 9.85128e-05)
(-0.176154 0.106585 9.37301e-05)
(-0.204171 0.137218 8.67247e-05)
(-0.250934 0.171433 7.6994e-05)
(-0.33693 0.206408 6.32405e-05)
(-0.521253 0.24534 3.94145e-05)
(-0.886323 0.30887 8.43356e-06)
(-0.886608 -0.309963 0.000186655)
(-0.521693 -0.246569 0.000196515)
(-0.337358 -0.207627 0.000203668)
(-0.251242 -0.17261 0.000209016)
(-0.204435 -0.1384 0.000212635)
(-0.176352 -0.107797 0.000215502)
(-0.158469 -0.08078 0.000217892)
(-0.146862 -0.0562891 0.000219768)
(-0.139771 -0.0334308 0.000221)
(-0.136397 -0.011477 0.000221408)
(-0.136386 0.0102068 0.000221119)
(-0.139739 0.0321761 0.000220097)
(-0.146815 0.0550631 0.000218081)